2869 
Lattice="100.0 0.0 0.0 0.0 100.0 0.0 0.0 0.0 100.0" Properties=species:S:1:pos:R:3:tags:R:1:dft_forces:R:3
H 99.8732 -0.0466127 0.0821776 1  0.0 0.0 0.0
H 2.21096 1.5679 0.0510682 1  0.0 0.0 0.0
H 2.23242 98.4315 100.01 1  0.0 0.0 0.0
H 97.4165 1.19872 0.021877 1  0.0 0.0 0.0
H 97.5745 98.3322 99.8901 1  0.0 0.0 0.0
H 1.46358 100.169 2.49015 1  0.0 0.0 0.0
H 1.43395 100.015 97.4961 1  0.0 0.0 0.0
H 98.3589 0.142198 2.32722 1  0.0 0.0 0.0
H 98.4242 0.208888 97.6407 1  0.0 0.0 0.0
H 99.8382 2.4806 1.27588 1  0.0 0.0 0.0
H 0.0899572 2.50821 98.2703 1  0.0 0.0 0.0
H 99.9024 97.8424 1.73714 1  0.0 0.0 0.0
H 100.035 97.8235 98.5071 1  0.0 0.0 0.0
H 4.76831 3.01536 99.7083 1  0.0 0.0 0.0
H 4.81115 97.3016 100.17 1  0.0 0.0 0.0
H 95.0801 2.9377 0.0317019 1  0.0 0.0 0.0
H 94.9743 97.0465 99.9862 1  0.0 0.0 0.0
H 2.85149 0.201409 4.82445 1  0.0 0.0 0.0
H 2.9398 99.8934 95.0305 1  0.0 0.0 0.0
H 96.816 0.310155 4.69609 1  0.0 0.0 0.0
H 97.22 99.9004 94.9262 1  0.0 0.0 0.0
H 99.9835 4.72166 3.13132 1  0.0 0.0 0.0
H 99.9068 4.92992 97.1505 1  0.0 0.0 0.0
H 99.9228 94.978 3.10343 1  0.0 0.0 0.0
H 99.9006 94.8971 97.3152 1  0.0 0.0 0.0
H 4.97323 0.207795 0.153928 1  0.0 0.0 0.0
H 3.93925 1.33571 2.41004 1  0.0 0.0 0.0
H 3.81276 98.4863 2.38506 1  0.0 0.0 0.0
H 3.76939 1.6524 97.4304 1  0.0 0.0 0.0
H 3.71587 98.6473 97.5902 1  0.0 0.0 0.0
H 2.20636 3.89191 1.5749 1  0.0 0.0 0.0
H 1.4325 2.52006 3.9779 1  0.0 0.0 0.0
H 2.31169 4.04975 98.416 1  0.0 0.0 0.0
H 1.48662 2.45269 95.8133 1  0.0 0.0 0.0
H 99.8356 5.06362 0.208744 1  0.0 0.0 0.0
H 2.22316 96.0228 1.22659 1  0.0 0.0 0.0
H 1.50144 97.6509 3.90799 1  0.0 0.0 0.0
H 2.46317 96.116 98.2401 1  0.0 0.0 0.0
H 1.13711 97.7277 96.0253 1  0.0 0.0 0.0
H 99.7369 95.1339 0.227473 1  0.0 0.0 0.0
H 94.8259 0.0050789 99.8974 1  0.0 0.0 0.0
H 95.9568 1.83009 2.46262 1  0.0 0.0 0.0
H 95.8057 98.6071 2.17615 1  0.0 0.0 0.0
H 95.9994 1.63913 97.4267 1  0.0 0.0 0.0
H 95.9742 98.6277 97.3882 1  0.0 0.0 0.0
H 97.4827 4.07942 1.37799 1  0.0 0.0 0.0
H 98.5895 2.43011 3.77424 1  0.0 0.0 0.0
H 97.4143 4.07439 98.3519 1  0.0 0.0 0.0
H 98.4214 2.61322 95.8751 1  0.0 0.0 0.0
H 97.3844 95.9952 1.44176 1  0.0 0.0 0.0
H 98.0174 97.7247 3.88631 1  0.0 0.0 0.0
H 97.2621 96.0214 98.4508 1  0.0 0.0 0.0
H 98.062 97.5332 96.2044 1  0.0 0.0 0.0
H 99.8655 99.9137 4.83819 1  0.0 0.0 0.0
H -0.111955 0.221031 94.9657 1  0.0 0.0 0.0
H 7.42031 4.81928 -0.0232963 1  0.0 0.0 0.0
H 7.20253 95.7321 99.7402 1  0.0 0.0 0.0
H 92.4848 4.74772 99.9134 1  0.0 0.0 0.0
H 92.317 95.8029 99.8133 1  0.0 0.0 0.0
H 4.01909 99.8541 7.23716 1  0.0 0.0 0.0
H 4.22817 99.8053 92.4706 1  0.0 0.0 0.0
H 95.4168 99.923 7.07664 1  0.0 0.0 0.0
H 95.5853 0.0436318 92.5621 1  0.0 0.0 0.0
H 0.0766305 7.40701 4.48851 1  0.0 0.0 0.0
H 0.0415166 7.22585 95.6817 1  0.0 0.0 0.0
H 0.0922515 92.7552 4.50145 1  0.0 0.0 0.0
H 99.5858 93.0407 95.5336 1  0.0 0.0 0.0
H 7.40296 1.78121 -0.0391756 1  0.0 0.0 0.0
H 7.38195 98.6137 99.8468 1  0.0 0.0 0.0
H 6.15329 2.86026 2.56618 1  0.0 0.0 0.0
H 5.40488 0.948389 4.83124 1  0.0 0.0 0.0
H 6.16098 96.9524 2.49862 1  0.0 0.0 0.0
H 5.21147 98.2716 4.95308 1  0.0 0.0 0.0
H 6.45445 99.7667 2.53961 1  0.0 0.0 0.0
H 6.3546 3.27965 97.289 1  0.0 0.0 0.0
H 5.33001 1.66491 94.9474 1  0.0 0.0 0.0
H 6.25361 97.3278 97.5579 1  0.0 0.0 0.0
H 5.29524 98.5702 95.2465 1  0.0 0.0 0.0
H 6.19132 0.375345 97.4411 1  0.0 0.0 0.0
H 4.82032 5.43709 1.41685 1  0.0 0.0 0.0
H 2.4146 6.62978 2.92092 1  0.0 0.0 0.0
H 2.78519 2.48022 6.51956 1  0.0 0.0 0.0
H 1.37343 5.01091 5.56122 1  0.0 0.0 0.0
H 3.73834 3.82621 3.98156 1  0.0 0.0 0.0
H 4.9071 5.42985 98.1812 1  0.0 0.0 0.0
H 2.57419 6.51774 96.8619 1  0.0 0.0 0.0
H 3.03392 2.8276 93.5667 1  0.0 0.0 0.0
H 1.82038 5.0632 94.6356 1  0.0 0.0 0.0
H 4.24907 4.18378 95.8646 1  0.0 0.0 0.0
H 0.0547972 7.63993 1.47585 1  0.0 0.0 0.0
H 100.018 7.3039 98.4884 1  0.0 0.0 0.0
H 2.56409 6.47725 -0.164736 1  0.0 0.0 0.0
H 4.86879 94.5088 1.45232 1  0.0 0.0 0.0
H 2.50761 93.7164 2.81026 1  0.0 0.0 0.0
H 2.53898 97.6757 6.39057 1  0.0 0.0 0.0
H 1.30089 95.1218 5.48598 1  0.0 0.0 0.0
H 3.98939 95.9417 4.08673 1  0.0 0.0 0.0
H 4.83862 94.7066 98.4062 1  0.0 0.0 0.0
H 2.13883 93.5701 96.7867 1  0.0 0.0 0.0
H 2.67657 97.455 93.3355 1  0.0 0.0 0.0
H 1.10013 95.1773 94.5795 1  0.0 0.0 0.0
H 3.72435 96.314 96.0119 1  0.0 0.0 0.0
H 99.9741 92.5915 1.68125 1  0.0 0.0 0.0
H 99.7014 92.4187 98.4718 1  0.0 0.0 0.0
H 1.97437 93.7196 99.7008 1  0.0 0.0 0.0
H 92.4408 1.65705 99.8687 1  0.0 0.0 0.0
H 92.3457 98.7899 99.8346 1  0.0 0.0 0.0
H 93.3377 3.06399 2.13075 1  0.0 0.0 0.0
H 94.2519 1.52827 4.88447 1  0.0 0.0 0.0
H 93.4434 97.2025 2.4963 1  0.0 0.0 0.0
H 94.7528 98.3273 4.75673 1  0.0 0.0 0.0
H 93.3581 -0.00262206 2.37472 1  0.0 0.0 0.0
H 93.7527 3.20917 97.6011 1  0.0 0.0 0.0
H 94.5633 1.37213 95.009 1  0.0 0.0 0.0
H 93.5044 97.2225 97.3401 1  0.0 0.0 0.0
H 94.3385 98.5393 94.8201 1  0.0 0.0 0.0
H 93.1931 100.191 97.4317 1  0.0 0.0 0.0
H 94.8557 5.68241 1.54875 1  0.0 0.0 0.0
H 97.821 6.54702 2.86737 1  0.0 0.0 0.0
H 96.8376 2.69123 6.5316 1  0.0 0.0 0.0
H 98.3071 4.80698 5.34728 1  0.0 0.0 0.0
H 95.7783 4.22595 4.02662 1  0.0 0.0 0.0
H 94.8693 5.75263 98.7016 1  0.0 0.0 0.0
H 97.4209 6.67539 96.7691 1  0.0 0.0 0.0
H 97.2383 2.5198 93.1589 1  0.0 0.0 0.0
H 98.7306 5.03107 94.6063 1  0.0 0.0 0.0
H 96.0485 4.04942 95.6851 1  0.0 0.0 0.0
H 97.3902 6.67214 99.7268 1  0.0 0.0 0.0
H 94.7639 94.5825 1.30146 2  0.0 0.0 0.0
H 97.478 93.4404 3.1088 1  0.0 0.0 0.0
H 97.0571 97.7168 6.46282 1  0.0 0.0 0.0
H 98.1124 94.832 5.37003 1  0.0 0.0 0.0
H 95.8192 95.8312 3.79072 1  0.0 0.0 0.0
H 94.4446 94.7164 98.3756 2  0.0 0.0 0.0
H 97.1023 93.7331 96.9816 1  0.0 0.0 0.0
H 96.6947 97.3677 93.3369 1  0.0 0.0 0.0
H 98.1083 95.3008 94.8265 1  0.0 0.0 0.0
H 95.5977 95.9457 95.9293 1  0.0 0.0 0.0
H 97.513 93.1154 0.109307 1  0.0 0.0 0.0
H 1.31906 0.00565977 7.74724 1  0.0 0.0 0.0
H 98.4111 99.852 7.29897 1  0.0 0.0 0.0
H 99.5606 2.25168 6.38145 1  0.0 0.0 0.0
H 99.7333 97.2467 6.42819 1  0.0 0.0 0.0
H 1.44959 0.2679 92.5586 1  0.0 0.0 0.0
H 98.5674 99.9865 92.5707 1  0.0 0.0 0.0
H -0.0141131 2.61122 93.4118 1  0.0 0.0 0.0
H 99.6292 97.712 93.7158 1  0.0 0.0 0.0
H 9.7386 6.10996 99.7742 1  0.0 0.0 0.0
H 9.55032 93.7238 99.6508 1  0.0 0.0 0.0
H 89.9961 6.03847 99.9605 1  0.0 0.0 0.0
H 90.0439 94.0807 0.0884468 1  0.0 0.0 0.0
H 5.65351 99.4998 9.60613 1  0.0 0.0 0.0
H 5.73973 0.0565266 90.2603 1  0.0 0.0 0.0
H 93.6668 0.0912737 9.6791 1  0.0 0.0 0.0
H 94.0095 0.349399 90.0394 1  0.0 0.0 0.0
H 99.9091 9.64753 6.06819 1  0.0 0.0 0.0
H 0.283932 9.8347 94.0576 1  0.0 0.0 0.0
H 99.9773 90.3206 6.02576 1  0.0 0.0 0.0
H 99.8246 90.4209 93.8191 1  0.0 0.0 0.0
H 9.79846 3.25401 99.853 1  0.0 0.0 0.0
H 9.71559 0.413458 99.502 2  0.0 0.0 0.0
H 9.91665 96.9749 99.8488 1  0.0 0.0 0.0
H 8.72454 4.29718 2.49291 1  0.0 0.0 0.0
H 8.01398 2.85909 4.53562 2  0.0 0.0 0.0
H 6.7456 1.06154 7.54052 1  0.0 0.0 0.0
H 8.74247 95.1245 2.31426 1  0.0 0.0 0.0
H 7.63664 96.7997 4.97889 1  0.0 0.0 0.0
H 6.67619 98.1951 7.40404 1  0.0 0.0 0.0
H 9.07942 1.31753 2.35052 1  0.0 0.0 0.0
H 8.8284 98.1755 2.54873 1  0.0 0.0 0.0
H 7.89617 99.6907 5.06698 1  0.0 0.0 0.0
H 9.10065 4.52911 97.3936 1  0.0 0.0 0.0
H 8.24651 2.88953 94.4486 2  0.0 0.0 0.0
H 6.79612 1.29357 92.7191 2  0.0 0.0 0.0
H 8.65742 95.4623 97.4502 1  0.0 0.0 0.0
H 7.84232 97.0211 94.9767 1  0.0 0.0 0.0
H 6.60638 98.5099 92.4209 1  0.0 0.0 0.0
H 8.6488 1.77332 97.1382 1  0.0 0.0 0.0
H 8.72569 98.5976 97.2466 1  0.0 0.0 0.0
H 7.96157 99.6457 94.6497 2  0.0 0.0 0.0
H 7.24518 7.08089 1.52223 1  0.0 0.0 0.0
H 4.93177 8.10349 3.0676 1  0.0 0.0 0.0
H 2.27092 9.05773 4.6284 1  0.0 0.0 0.0
H 4.46775 2.31896 8.90104 1  0.0 0.0 0.0
H 2.90419 5.065 7.90727 1  0.0 0.0 0.0
H 1.26334 7.44321 7.05036 1  0.0 0.0 0.0
H 6.39256 5.46079 3.87743 1  0.0 0.0 0.0
H 5.59935 3.64252 6.41332 1  0.0 0.0 0.0
H 4.0015 6.25536 5.34083 1  0.0 0.0 0.0
H 7.30848 7.0262 98.3639 1  0.0 0.0 0.0
H 5.15516 8.11607 96.803 1  0.0 0.0 0.0
H 2.63584 8.90409 95.564 1  0.0 0.0 0.0
H 4.2407 2.51728 90.7468 1  0.0 0.0 0.0
H 2.6831 4.88996 91.6928 1  0.0 0.0 0.0
H 1.56474 7.32201 92.8158 1  0.0 0.0 0.0
H 6.49633 5.80967 95.8728 1  0.0 0.0 0.0
H 5.59949 3.94831 93.3853 1  0.0 0.0 0.0
H 4.04655 6.67375 94.1431 1  0.0 0.0 0.0
H 99.5195 9.91395 3.0137 1  0.0 0.0 0.0
H 99.8005 10.0557 0.0334863 1  0.0 0.0 0.0
H 0.22125 9.85984 97.0321 1  0.0 0.0 0.0
H 4.9895 7.87576 99.6909 1  0.0 0.0 0.0
H 2.51421 8.89781 1.42118 1  0.0 0.0 0.0
H 2.41897 9.03394 98.5294 1  0.0 0.0 0.0
H 7.11291 92.8812 1.6034 1  0.0 0.0 0.0
H 4.83696 92.0629 2.97191 1  0.0 0.0 0.0
H 2.44547 90.9579 4.50251 1  0.0 0.0 0.0
H 4.40193 97.3589 8.74288 1  0.0 0.0 0.0
H 3.0033 95.0065 7.80805 1  0.0 0.0 0.0
H 1.67685 92.6673 6.99464 1  0.0 0.0 0.0
H 6.49711 94.3086 3.89325 1  0.0 0.0 0.0
H 5.38596 95.8063 6.49313 1  0.0 0.0 0.0
H 4.13806 93.5241 5.38018 1  0.0 0.0 0.0
H 7.10238 93.0048 98.7998 1  0.0 0.0 0.0
H 4.64216 92.2256 96.9753 1  0.0 0.0 0.0
H 2.17769 91.3313 95.25 1  0.0 0.0 0.0
H 4.17172 97.4775 90.9072 1  0.0 0.0 0.0
H 3.00829 95.0398 91.9394 1  0.0 0.0 0.0
H 1.34267 92.9058 92.8894 1  0.0 0.0 0.0
H 6.21593 94.7682 95.8409 1  0.0 0.0 0.0
H 5.30633 96.2874 93.2191 1  0.0 0.0 0.0
H 3.63428 93.8453 94.6074 1  0.0 0.0 0.0
H 100.106 90.1777 2.99269 1  0.0 0.0 0.0
H 99.2631 90.1489 99.9904 1  0.0 0.0 0.0
H 99.652 90.1854 96.8231 1  0.0 0.0 0.0
H 4.67022 92.1874 99.9924 1  0.0 0.0 0.0
H 2.29022 90.9665 1.4449 1  0.0 0.0 0.0
H 2.19958 91.0701 98.5408 1  0.0 0.0 0.0
H 90.0578 2.91149 99.7086 1  0.0 0.0 0.0
H 89.8604 0.118098 0.171296 1  0.0 0.0 0.0
H 90.1201 97.3544 99.7002 1  0.0 0.0 0.0
H 90.9985 4.5747 2.18702 1  0.0 0.0 0.0
H 92.0068 3.50422 5.04506 1  0.0 0.0 0.0
H 92.9448 1.47716 7.27365 1  0.0 0.0 0.0
H 90.9924 95.6242 2.39221 1  0.0 0.0 0.0
H 91.8894 96.9839 4.85547 1  0.0 0.0 0.0
H 92.835 98.6316 6.95297 1  0.0 0.0 0.0
H 90.9492 1.65553 2.40833 1  0.0 0.0 0.0
H 90.8218 98.6847 2.38514 1  0.0 0.0 0.0
H 91.839 0.107533 4.9358 1  0.0 0.0 0.0
H 91.1508 4.58733 97.4346 1  0.0 0.0 0.0
H 92.1619 3.13899 95.0495 1  0.0 0.0 0.0
H 92.815 1.79065 92.3786 1  0.0 0.0 0.0
H 90.9946 95.7138 97.0795 1  0.0 0.0 0.0
H 91.8709 96.8075 94.8841 1  0.0 0.0 0.0
H 93.1342 98.6705 92.3558 1  0.0 0.0 0.0
H 90.9264 1.71952 97.3953 1  0.0 0.0 0.0
H 90.7813 98.679 97.06 1  0.0 0.0 0.0
H 91.9737 0.0888055 94.785 1  0.0 0.0 0.0
H 92.4518 7.22422 1.67546 1  0.0 0.0 0.0
H 95.2439 8.05843 2.96179 1  0.0 0.0 0.0
H 97.4877 8.96985 4.47847 1  0.0 0.0 0.0
H 95.1346 2.63271 8.87047 1  0.0 0.0 0.0
H 96.4869 4.96264 8.14029 1  0.0 0.0 0.0
H 98.2944 7.21474 7.05623 1  0.0 0.0 0.0
H 93.3346 5.86683 3.90103 1  0.0 0.0 0.0
H 94.3705 3.97722 6.48436 1  0.0 0.0 0.0
H 95.8066 6.49315 5.51826 1  0.0 0.0 0.0
H 92.6227 7.17987 98.2766 1  0.0 0.0 0.0
H 95.0057 8.16482 96.9034 1  0.0 0.0 0.0
H 97.1966 9.13632 95.2497 1  0.0 0.0 0.0
H 95.558 2.45955 90.9055 1  0.0 0.0 0.0
H 97.097 4.98681 91.8518 1  0.0 0.0 0.0
H 98.5978 7.41487 92.9297 1  0.0 0.0 0.0
H 93.5691 5.68235 96.0448 1  0.0 0.0 0.0
H 94.3958 4.15997 93.3534 1  0.0 0.0 0.0
H 96.1839 6.50765 94.2113 1  0.0 0.0 0.0
H 94.9845 8.27948 99.8114 1  0.0 0.0 0.0
H 97.5382 8.94319 1.55937 1  0.0 0.0 0.0
H 97.5213 9.127 98.5183 1  0.0 0.0 0.0
H 92.3217 93.274 1.63453 1  0.0 0.0 0.0
H 95.2414 91.7475 3.24117 2  0.0 0.0 0.0
H 97.4255 90.972 5.00636 1  0.0 0.0 0.0
H 95.2572 97.7123 8.75984 1  0.0 0.0 0.0
H 96.5871 95.0159 7.88513 1  0.0 0.0 0.0
H 98.7266 92.6601 7.04606 1  0.0 0.0 0.0
H 93.1983 94.7506 3.88163 2  0.0 0.0 0.0
H 94.2628 95.9353 6.22912 1  0.0 0.0 0.0
H 95.675 93.3636 5.57245 1  0.0 0.0 0.0
H 92.277 93.188 98.4878 1  0.0 0.0 0.0
H 94.8829 92.1211 97.3575 1  0.0 0.0 0.0
H 97.0936 91.1668 95.4667 1  0.0 0.0 0.0
H 95.4521 97.4747 90.9019 1  0.0 0.0 0.0
H 96.9988 94.8441 91.6922 1  0.0 0.0 0.0
H 98.2396 92.7639 93.061 1  0.0 0.0 0.0
H 93.3732 94.3102 96.047 1  0.0 0.0 0.0
H 94.0911 96.0074 92.9899 1  0.0 0.0 0.0
H 95.9051 93.7317 94.2179 1  0.0 0.0 0.0
H 94.9526 92.1971 0.348311 1  0.0 0.0 0.0
H 97.288 90.927 1.91059 1  0.0 0.0 0.0
H 97.1183 90.9039 98.3897 1  0.0 0.0 0.0
H 2.92077 99.8154 9.96142 2  0.0 0.0 0.0
H 99.5071 100.065 10.1704 1  0.0 0.0 0.0
H 96.7361 0.0137347 9.63739 1  0.0 0.0 0.0
H 1.03151 2.58543 8.88611 1  0.0 0.0 0.0
H 98.2146 2.62509 8.89764 1  0.0 0.0 0.0
H 99.9395 4.92546 7.80695 1  0.0 0.0 0.0
H 1.32868 97.6501 9.04976 1  0.0 0.0 0.0
H 98.0996 97.4391 8.97108 1  0.0 0.0 0.0
H 99.79 95.2186 8.10571 1  0.0 0.0 0.0
H 2.49373 99.7133 89.917 1  0.0 0.0 0.0
H 99.7883 0.101044 89.9597 1  0.0 0.0 0.0
H 96.9189 99.9359 89.8483 1  0.0 0.0 0.0
H 1.55946 2.55587 90.7376 1  0.0 0.0 0.0
H 98.7651 2.81223 90.5717 1  0.0 0.0 0.0
H -0.0842538 5.24603 91.7866 1  0.0 0.0 0.0
H 1.23534 97.4749 90.7952 1  0.0 0.0 0.0
H 98.4846 97.5143 90.8294 1  0.0 0.0 0.0
H 99.8944 95.2972 91.9 1  0.0 0.0 0.0
H 12.265 7.39205 0.157284 1  0.0 0.0 0.0
H 12.1442 92.4193 0.141936 1  0.0 0.0 0.0
H 87.5707 7.77177 99.8447 1  0.0 0.0 0.0
H 87.5668 92.9067 99.8816 1  0.0 0.0 0.0
H 7.63535 99.6901 12.0434 1  0.0 0.0 0.0
H 7.28914 100.014 87.7145 1  0.0 0.0 0.0
H 92.2419 0.19983 12.2212 1  0.0 0.0 0.0
H 92.5243 0.458235 87.5953 1  0.0 0.0 0.0
H 99.9096 12.0119 7.46856 1  0.0 0.0 0.0
H 0.223409 12.1363 92.5043 1  0.0 0.0 0.0
H 0.0432963 88.189 7.90135 2  0.0 0.0 0.0
H 99.6683 87.8112 92.097 1  0.0 0.0 0.0
H 12.2857 4.33646 0.171407 1  0.0 0.0 0.0
H 12.4039 1.44387 99.7611 1  0.0 0.0 0.0
H 12.2786 98.553 99.9018 1  0.0 0.0 0.0
H 12.2137 95.3301 0.213592 1  0.0 0.0 0.0
H 11.2834 5.66372 2.35518 1  0.0 0.0 0.0
H 10.3195 4.37048 5.09231 1  0.0 0.0 0.0
H 9.45286 2.58256 7.25498 1  0.0 0.0 0.0
H 8.10997 1.34002 9.73845 1  0.0 0.0 0.0
H 11.5107 93.8051 2.95485 1  0.0 0.0 0.0
H 10.5589 95.4958 5.0406 1  0.0 0.0 0.0
H 9.42495 96.746 7.49183 1  0.0 0.0 0.0
H 8.24083 98.1729 9.62502 1  0.0 0.0 0.0
H 11.4267 2.81019 2.48714 1  0.0 0.0 0.0
H 11.5162 99.7621 2.44013 1  0.0 0.0 0.0
H 10.1717 1.40361 4.92397 1  0.0 0.0 0.0
H 11.1801 96.78 2.52894 1  0.0 0.0 0.0
H 10.4507 98.4658 4.82511 1  0.0 0.0 0.0
H 9.29087 99.6991 7.40666 1  0.0 0.0 0.0
H 11.2082 6.27437 97.5239 1  0.0 0.0 0.0
H 10.4509 4.57527 94.9637 1  0.0 0.0 0.0
H 9.92392 3.17714 92.3539 2  0.0 0.0 0.0
H 8.12759 1.60557 90.1683 1  0.0 0.0 0.0
H 11.5096 93.803 97.5684 1  0.0 0.0 0.0
H 10.1449 95.475 94.7828 1  0.0 0.0 0.0
H 9.18009 97.0164 92.4985 1  0.0 0.0 0.0
H 8.19774 98.3215 89.987 1  0.0 0.0 0.0
H 11.5759 3.09641 97.4982 1  0.0 0.0 0.0
H 11.6259 99.89 97.5091 1  0.0 0.0 0.0
H 10.7389 1.65421 94.8208 1  0.0 0.0 0.0
H 11.1698 96.8013 97.1831 1  0.0 0.0 0.0
H 10.4478 98.661 94.8935 1  0.0 0.0 0.0
H 9.32591 -0.0488257 92.2957 1  0.0 0.0 0.0
H 9.75901 8.26694 1.68159 1  0.0 0.0 0.0
H 7.40135 9.48059 2.76451 1  0.0 0.0 0.0
H 4.63674 10.3065 4.6696 2  0.0 0.0 0.0
H 2.2618 11.6635 5.7111 1  0.0 0.0 0.0
H 5.80227 2.07873 11.3112 1  0.0 0.0 0.0
H 4.30046 4.62696 10.3599 1  0.0 0.0 0.0
H 2.64384 7.36488 9.70942 1  0.0 0.0 0.0
H 1.40034 9.96524 8.41889 1  0.0 0.0 0.0
H 8.93052 6.96615 4.06282 1  0.0 0.0 0.0
H 8.06049 5.23904 6.51679 1  0.0 0.0 0.0
H 6.54264 8.00379 5.42532 1  0.0 0.0 0.0
H 6.81034 3.80164 9.05619 1  0.0 0.0 0.0
H 5.70294 6.28976 8.03636 1  0.0 0.0 0.0
H 3.78507 8.69559 7.13313 1  0.0 0.0 0.0
H 9.83199 8.74619 98.2727 1  0.0 0.0 0.0
H 7.40004 9.71782 96.7232 1  0.0 0.0 0.0
H 5.2372 10.6805 95.0816 1  0.0 0.0 0.0
H 2.81132 11.4333 93.8213 1  0.0 0.0 0.0
H 5.76294 2.48142 88.351 1  0.0 0.0 0.0
H 4.46389 5.16406 89.4699 1  0.0 0.0 0.0
H 3.41046 7.54529 90.5049 1  0.0 0.0 0.0
H 1.45402 9.86752 91.3437 1  0.0 0.0 0.0
H 9.14853 7.30644 95.9443 1  0.0 0.0 0.0
H 8.0489 5.61154 93.2723 1  0.0 0.0 0.0
H 6.71649 8.05929 94.1361 1  0.0 0.0 0.0
H 6.75216 3.91135 90.8755 1  0.0 0.0 0.0
H 5.71025 6.40607 91.8456 1  0.0 0.0 0.0
H 4.15014 9.03854 92.8302 1  0.0 0.0 0.0
H 99.9016 12.4562 4.14063 1  0.0 0.0 0.0
H 99.7351 12.8234 1.36335 1  0.0 0.0 0.0
H 0.241293 12.3766 98.2845 1  0.0 0.0 0.0
H 0.324605 12.3157 95.3955 1  0.0 0.0 0.0
H 7.61977 9.40199 99.8002 1  0.0 0.0 0.0
H 4.84193 10.6785 1.62275 1  0.0 0.0 0.0
H 5.02092 10.358 98.5841 1  0.0 0.0 0.0
H 2.00243 11.2675 2.84796 1  0.0 0.0 0.0
H 2.76649 11.5815 99.8744 1  0.0 0.0 0.0
H 2.72475 11.6543 96.69 1  0.0 0.0 0.0
H 9.81892 91.4103 1.5753 1  0.0 0.0 0.0
H 7.51266 90.5263 3.26536 1  0.0 0.0 0.0
H 4.76362 89.4628 4.6839 1  0.0 0.0 0.0
H 2.07662 88.5476 6.04922 1  0.0 0.0 0.0
H 5.82891 97.4716 11.3746 1  0.0 0.0 0.0
H 4.45499 94.6677 10.4656 1  0.0 0.0 0.0
H 3.09536 92.2702 9.84069 1  0.0 0.0 0.0
H 1.41193 90.2543 9.09061 1  0.0 0.0 0.0
H 9.1036 92.7527 4.21698 1  0.0 0.0 0.0
H 7.98033 94.2584 6.3643 1  0.0 0.0 0.0
H 6.2075 91.7407 5.54262 1  0.0 0.0 0.0
H 6.89885 95.772 8.93962 1  0.0 0.0 0.0
H 5.43398 93.3182 8.16439 1  0.0 0.0 0.0
H 3.97186 91.0754 7.23762 1  0.0 0.0 0.0
H 9.80398 91.1804 98.2519 1  0.0 0.0 0.0
H 7.03659 90.9369 96.9686 1  0.0 0.0 0.0
H 4.63383 89.7715 95.3099 1  0.0 0.0 0.0
H 1.95061 88.5086 93.822 1  0.0 0.0 0.0
H 5.99094 97.2598 88.7139 1  0.0 0.0 0.0
H 4.37055 95.1527 89.4857 1  0.0 0.0 0.0
H 2.70466 92.6354 90.4876 1  0.0 0.0 0.0
H 1.45632 90.3864 91.5824 1  0.0 0.0 0.0
H 8.77827 93.3735 95.9369 1  0.0 0.0 0.0
H 7.60412 94.4776 93.7191 1  0.0 0.0 0.0
H 6.11101 92.0438 94.6235 1  0.0 0.0 0.0
H 6.92043 95.8133 91.0347 1  0.0 0.0 0.0
H 5.40722 93.6311 92.0201 1  0.0 0.0 0.0
H 4.06285 91.3033 93.0002 1  0.0 0.0 0.0
H 99.7297 87.8147 4.53931 1  0.0 0.0 0.0
H 99.7215 87.559 1.68205 1  0.0 0.0 0.0
H 99.8881 87.7828 98.5887 1  0.0 0.0 0.0
H 99.7904 87.7066 95.4832 1  0.0 0.0 0.0
H 7.49096 90.3969 0.182563 1  0.0 0.0 0.0
H 4.85169 89.6137 1.62441 1  0.0 0.0 0.0
H 4.75703 89.7416 98.3604 1  0.0 0.0 0.0
H 2.42839 88.2989 3.15242 1  0.0 0.0 0.0
H 2.25045 88.3634 0.242882 1  0.0 0.0 0.0
H 2.02754 88.9366 96.7274 1  0.0 0.0 0.0
H 87.6245 4.60085 99.7707 1  0.0 0.0 0.0
H 87.521 1.63796 99.8656 1  0.0 0.0 0.0
H 87.5331 98.721 99.8195 1  0.0 0.0 0.0
H 87.7649 95.795 0.282982 1  0.0 0.0 0.0
H 88.3384 6.12953 2.19343 1  0.0 0.0 0.0
H 89.2994 4.37421 4.46105 1  0.0 0.0 0.0
H 90.454 3.05704 7.3031 1  0.0 0.0 0.0
H 91.1757 1.60003 9.75171 1  0.0 0.0 0.0
H 88.3028 94.0981 2.55041 1  0.0 0.0 0.0
H 89.2463 95.4497 5.00137 1  0.0 0.0 0.0
H 90.3316 96.9665 7.42402 1  0.0 0.0 0.0
H 91.3546 98.486 9.7535 1  0.0 0.0 0.0
H 88.6415 2.97128 2.17586 1  0.0 0.0 0.0
H 88.3749 0.142346 2.53491 1  0.0 0.0 0.0
H 89.2707 1.36539 4.98932 1  0.0 0.0 0.0
H 88.3385 97.0759 2.61756 1  0.0 0.0 0.0
H 89.2936 98.3285 4.80031 1  0.0 0.0 0.0
H 90.1739 -0.0205568 7.3747 1  0.0 0.0 0.0
H 88.7158 6.44637 97.2888 1  0.0 0.0 0.0
H 89.7 5.14636 94.8715 1  0.0 0.0 0.0
H 90.5093 3.44107 92.7439 1  0.0 0.0 0.0
H 91.0552 1.78328 90.039 2  0.0 0.0 0.0
H 88.5249 94.2377 97.4884 1  0.0 0.0 0.0
H 89.159 95.3851 94.5918 1  0.0 0.0 0.0
H 90.3511 97.5591 92.4665 2  0.0 0.0 0.0
H 91.4155 98.4666 90.0379 1  0.0 0.0 0.0
H 88.493 3.57666 97.2016 1  0.0 0.0 0.0
H 88.3503 0.338422 97.5214 1  0.0 0.0 0.0
H 89.2984 1.87102 95.1039 1  0.0 0.0 0.0
H 88.4019 97.0117 97.3977 1  0.0 0.0 0.0
H 89.0894 98.8149 94.8093 1  0.0 0.0 0.0
H 90.5286 0.232697 92.1939 2  0.0 0.0 0.0
H 90.0147 8.77239 1.0559 1  0.0 0.0 0.0
H 92.7123 9.73178 2.77492 1  0.0 0.0 0.0
H 95.0073 10.4747 4.15765 1  0.0 0.0 0.0
H 97.3625 11.3628 5.71327 1  0.0 0.0 0.0
H 93.617 2.53787 11.3769 1  0.0 0.0 0.0
H 94.9746 4.95519 10.5683 1  0.0 0.0 0.0
H 97.0058 7.60892 9.60214 1  0.0 0.0 0.0
H 98.274 9.96237 8.34186 1  0.0 0.0 0.0
H 90.847 7.19838 4.04466 1  0.0 0.0 0.0
H 91.8717 5.90513 6.62054 1  0.0 0.0 0.0
H 93.4002 8.13241 5.32034 1  0.0 0.0 0.0
H 92.709 3.9265 8.77051 1  0.0 0.0 0.0
H 94.3244 6.6611 8.08137 1  0.0 0.0 0.0
H 96.0121 9.0224 6.89576 1  0.0 0.0 0.0
H 90.0877 8.78198 98.0937 1  0.0 0.0 0.0
H 92.7629 9.93678 96.7412 1  0.0 0.0 0.0
H 95.0291 10.7197 94.8913 1  0.0 0.0 0.0
H 97.4254 11.5286 93.7892 1  0.0 0.0 0.0
H 94.2153 2.80751 88.3586 1  0.0 0.0 0.0
H 95.7274 5.03747 89.2524 1  0.0 0.0 0.0
H 96.9944 7.16425 90.2123 1  0.0 0.0 0.0
H 98.4561 9.62544 91.4302 1  0.0 0.0 0.0
H 91.2818 7.35171 95.5944 1  0.0 0.0 0.0
H 92.1696 5.74709 93.1848 1  0.0 0.0 0.0
H 93.6075 7.9912 94.2924 1  0.0 0.0 0.0
H 92.7549 4.07596 90.9081 1  0.0 0.0 0.0
H 94.3599 6.55062 91.3494 1  0.0 0.0 0.0
H 95.8959 8.93162 92.555 1  0.0 0.0 0.0
H 92.5952 9.9553 99.923 1  0.0 0.0 0.0
H 95.0135 10.5479 1.25674 1  0.0 0.0 0.0
H 95.0184 10.726 98.2314 1  0.0 0.0 0.0
H 97.2422 11.6359 2.6981 1  0.0 0.0 0.0
H 97.4536 11.6532 99.4422 1  0.0 0.0 0.0
H 97.8155 11.6257 96.6251 1  0.0 0.0 0.0
H 89.9761 91.6891 1.78361 1  0.0 0.0 0.0
H 92.5103 90.6965 3.36936 1  0.0 0.0 0.0
H 95.0709 89.29 4.86392 1  0.0 0.0 0.0
H 97.6585 88.6099 6.4768 1  0.0 0.0 0.0
H 93.7962 97.6526 11.2404 1  0.0 0.0 0.0
H 95.4434 95.1764 10.3704 1  0.0 0.0 0.0
H 96.9387 92.7582 9.48195 1  0.0 0.0 0.0
H 98.5227 90.5976 8.68508 1  0.0 0.0 0.0
H 91.0309 93.0545 4.11044 1  0.0 0.0 0.0
H 91.6302 94.4666 6.47683 1  0.0 0.0 0.0
H 93.3754 91.8792 5.77823 1  0.0 0.0 0.0
H 92.7815 96.2201 8.57181 1  0.0 0.0 0.0
H 94.1203 93.5341 8.27039 1  0.0 0.0 0.0
H 95.7311 91.0472 7.17683 1  0.0 0.0 0.0
H 89.9866 91.7817 98.5296 1  0.0 0.0 0.0
H 92.4957 90.7156 97.0223 1  0.0 0.0 0.0
H 94.5486 89.4477 95.6581 1  0.0 0.0 0.0
H 97.3761 88.5429 94.1709 1  0.0 0.0 0.0
H 93.867 97.8471 88.5552 1  0.0 0.0 0.0
H 95.4029 95.0274 89.3289 1  0.0 0.0 0.0
H 96.5935 92.4062 90.5057 1  0.0 0.0 0.0
H 97.9327 90.2358 91.6187 1  0.0 0.0 0.0
H 90.504 92.9614 95.762 1  0.0 0.0 0.0
H 91.7083 94.4451 93.4033 1  0.0 0.0 0.0
H 93.2428 92.0932 94.3107 1  0.0 0.0 0.0
H 93.0611 95.7474 90.5066 2  0.0 0.0 0.0
H 94.0972 93.1675 91.8955 1  0.0 0.0 0.0
H 95.3089 90.695 92.9924 1  0.0 0.0 0.0
H 92.3297 90.8684 0.027144 1  0.0 0.0 0.0
H 94.8806 89.4248 1.3528 1  0.0 0.0 0.0
H 94.7923 89.5403 98.6002 1  0.0 0.0 0.0
H 97.3126 88.408 3.18961 1  0.0 0.0 0.0
H 97.1762 88.3487 100.042 1  0.0 0.0 0.0
H 97.649 88.2838 97.0381 1  0.0 0.0 0.0
H 4.06979 99.7461 12.2984 1  0.0 0.0 0.0
H 1.19331 0.0526451 12.1354 1  0.0 0.0 0.0
H 98.1086 0.0503483 12.5401 1  0.0 0.0 0.0
H 95.3116 0.194381 12.2134 1  0.0 0.0 0.0
H 3.07909 2.48419 11.3556 1  0.0 0.0 0.0
H 0.130122 2.65129 11.6132 1  0.0 0.0 0.0
H 1.32561 4.9114 10.3267 1  0.0 0.0 0.0
H 97.0308 2.48328 11.4937 1  0.0 0.0 0.0
H 98.2727 4.92963 10.2352 1  0.0 0.0 0.0
H 99.6384 7.27683 9.57336 1  0.0 0.0 0.0
H 2.8526 96.9655 11.4759 1  0.0 0.0 0.0
H 99.7758 97.4062 11.4348 1  0.0 0.0 0.0
H 1.44878 94.7734 10.4213 1  0.0 0.0 0.0
H 96.6169 97.39 11.4141 1  0.0 0.0 0.0
H 98.1722 94.9983 10.4485 1  0.0 0.0 0.0
H 100.023 92.7224 9.69939 1  0.0 0.0 0.0
H 4.57854 99.7504 87.4981 1  0.0 0.0 0.0
H 1.42518 99.8366 87.1659 1  0.0 0.0 0.0
H 98.5429 99.9333 87.3121 1  0.0 0.0 0.0
H 95.4339 0.0683771 87.6365 1  0.0 0.0 0.0
H 3.06321 2.3407 88.0879 1  0.0 0.0 0.0
H 0.192055 2.29331 88.2541 1  0.0 0.0 0.0
H 1.42681 5.03662 89.109 1  0.0 0.0 0.0
H 97.0944 2.46531 87.8809 1  0.0 0.0 0.0
H 98.4057 4.95165 88.9893 1  0.0 0.0 0.0
H 0.400784 7.54405 90.4424 2  0.0 0.0 0.0
H 2.80551 97.4493 88.199 1  0.0 0.0 0.0
H 99.8482 97.5775 88.1515 1  0.0 0.0 0.0
H 1.33477 94.8477 89.3103 1  0.0 0.0 0.0
H 96.9036 97.3621 88.1383 1  0.0 0.0 0.0
H 98.4928 95.1952 89.0856 1  0.0 0.0 0.0
H 99.7724 92.6536 90.3943 1  0.0 0.0 0.0
H 14.9055 8.96678 99.7765 1  0.0 0.0 0.0
H 14.7743 90.9347 99.7727 1  0.0 0.0 0.0
H 85.1402 9.37693 99.7148 1  0.0 0.0 0.0
H 85.2525 91.2756 0.156107 1  0.0 0.0 0.0
H 9.11934 99.6009 14.6635 1  0.0 0.0 0.0
H 9.09211 99.4886 85.0263 1  0.0 0.0 0.0
H 90.84 0.0717324 14.7341 1  0.0 0.0 0.0
H 90.6797 0.135105 85.4784 1  0.0 0.0 0.0
H 0.166707 14.6556 9.06533 1  0.0 0.0 0.0
H -0.0467885 14.6494 90.6791 1  0.0 0.0 0.0
H 0.134723 85.3204 9.14722 1  0.0 0.0 0.0
H 99.5763 85.1526 91.0928 1  0.0 0.0 0.0
H 14.7601 5.95803 0.145524 1  0.0 0.0 0.0
H 14.7952 2.97931 0.124547 1  0.0 0.0 0.0
H 14.9319 0.0171652 99.7801 1  0.0 0.0 0.0
H 14.7953 96.7395 99.9975 1  0.0 0.0 0.0
H 14.9323 94.0612 99.7447 1  0.0 0.0 0.0
H 13.8477 7.51295 2.54 1  0.0 0.0 0.0
H 12.7852 6.18435 4.82482 1  0.0 0.0 0.0
H 11.7692 4.66192 7.61399 1  0.0 0.0 0.0
H 10.9236 2.71623 10.0947 1  0.0 0.0 0.0
H 10.0986 1.1047 12.1164 1  0.0 0.0 0.0
H 13.8199 92.2336 2.47681 1  0.0 0.0 0.0
H 12.9998 93.8838 5.28061 1  0.0 0.0 0.0
H 12.024 95.1945 7.64976 1  0.0 0.0 0.0
H 10.9821 96.6895 9.63907 1  0.0 0.0 0.0
H 10.1963 98.3044 12.2634 1  0.0 0.0 0.0
H 13.6852 4.3898 2.67078 1  0.0 0.0 0.0
H 13.9205 1.46558 2.58216 1  0.0 0.0 0.0
H 12.8448 2.93247 5.06425 1  0.0 0.0 0.0
H 14.1462 98.4596 2.68823 1  0.0 0.0 0.0
H 13.0746 99.8228 5.07352 1  0.0 0.0 0.0
H 11.9617 1.52293 7.49789 1  0.0 0.0 0.0
H 13.8537 95.4837 2.50285 1  0.0 0.0 0.0
H 13.028 96.8015 4.82181 1  0.0 0.0 0.0
H 11.9598 98.3179 7.39396 1  0.0 0.0 0.0
H 10.852 99.6946 9.78479 1  0.0 0.0 0.0
H 13.7205 7.37538 97.5111 1  0.0 0.0 0.0
H 12.9411 6.28658 94.85 1  0.0 0.0 0.0
H 12.0609 4.8659 92.3349 2  0.0 0.0 0.0
H 10.9134 2.87461 89.827 1  0.0 0.0 0.0
H 9.93931 1.40347 87.469 1  0.0 0.0 0.0
H 13.8783 92.5171 97.3769 1  0.0 0.0 0.0
H 12.7903 93.9852 95.1148 1  0.0 0.0 0.0
H 11.7701 95.3895 92.5209 1  0.0 0.0 0.0
H 10.8054 96.6596 89.7626 1  0.0 0.0 0.0
H 9.51742 98.0874 87.5701 1  0.0 0.0 0.0
H 13.8859 4.36139 97.8212 1  0.0 0.0 0.0
H 14.0968 1.38232 97.1253 1  0.0 0.0 0.0
H 12.8981 3.18466 94.7135 2  0.0 0.0 0.0
H 13.9725 98.2665 97.3112 1  0.0 0.0 0.0
H 13.0513 99.6743 94.6759 1  0.0 0.0 0.0
H 11.8752 1.02062 91.9055 2  0.0 0.0 0.0
H 14.0179 95.6287 97.4295 1  0.0 0.0 0.0
H 12.7503 96.8367 94.7422 1  0.0 0.0 0.0
H 11.5353 98.1484 92.4276 2  0.0 0.0 0.0
H 10.691 99.64 89.7974 1  0.0 0.0 0.0
H 12.2377 9.95855 1.63905 1  0.0 0.0 0.0
H 10.1118 11.1945 2.73603 1  0.0 0.0 0.0
H 7.77377 12.1267 4.29883 2  0.0 0.0 0.0
H 4.72532 12.8334 6.26893 1  0.0 0.0 0.0
H 2.3817 13.8935 7.48616 1  0.0 0.0 0.0
H 7.6578 2.2257 13.5949 1  0.0 0.0 0.0
H 5.68172 4.73585 12.9542 1  0.0 0.0 0.0
H 4.26175 7.37359 11.9461 1  0.0 0.0 0.0
H 2.89157 9.74271 11.0771 1  0.0 0.0 0.0
H 1.65817 12.1296 10.0329 1  0.0 0.0 0.0
H 11.2743 8.75158 3.93091 1  0.0 0.0 0.0
H 10.4962 7.02395 6.4691 1  0.0 0.0 0.0
H 8.92473 9.7279 5.43973 1  0.0 0.0 0.0
H 9.37539 5.12182 8.9944 1  0.0 0.0 0.0
H 8.05902 7.87219 7.77475 1  0.0 0.0 0.0
H 6.42827 10.2647 7.23178 1  0.0 0.0 0.0
H 8.23527 4.19423 11.4739 1  0.0 0.0 0.0
H 6.9137 6.43026 10.7854 1  0.0 0.0 0.0
H 5.46554 8.69782 9.61712 1  0.0 0.0 0.0
H 4.09739 11.1887 8.75299 1  0.0 0.0 0.0
H 12.2701 10.1694 98.2452 1  0.0 0.0 0.0
H 9.91824 11.0061 96.3955 1  0.0 0.0 0.0
H 7.26823 12.4447 95.4503 2  0.0 0.0 0.0
H 5.05102 13.1618 93.8845 1  0.0 0.0 0.0
H 2.53015 13.8734 92.0567 1  0.0 0.0 0.0
H 7.27323 2.18954 85.9751 1  0.0 0.0 0.0
H 6.00118 4.96917 87.1159 1  0.0 0.0 0.0
H 4.61369 7.50804 87.6219 1  0.0 0.0 0.0
H 2.91055 10.037 88.8007 1  0.0 0.0 0.0
H 1.21884 12.0782 89.8174 1  0.0 0.0 0.0
H 11.6818 8.74066 95.8058 1  0.0 0.0 0.0
H 10.4623 7.1999 93.5344 1  0.0 0.0 0.0
H 9.23564 9.56628 93.9779 2  0.0 0.0 0.0
H 9.80736 5.53049 90.7764 1  0.0 0.0 0.0
H 8.02669 7.86982 91.4333 1  0.0 0.0 0.0
H 6.66713 10.3337 92.375 1  0.0 0.0 0.0
H 8.55316 3.94959 88.5638 1  0.0 0.0 0.0
H 7.20791 6.65858 89.0921 1  0.0 0.0 0.0
H 5.50084 8.98265 89.8912 1  0.0 0.0 0.0
H 3.95619 11.3046 91.2464 1  0.0 0.0 0.0
H 99.9304 14.5618 5.90525 1  0.0 0.0 0.0
H 99.6065 15.3119 2.88189 1  0.0 0.0 0.0
H 0.0800815 15.1213 99.7724 1  0.0 0.0 0.0
H 0.232794 14.9751 96.7871 1  0.0 0.0 0.0
H 0.273313 14.7533 93.7605 1  0.0 0.0 0.0
H 10.1471 11.045 99.9852 1  0.0 0.0 0.0
H 7.47245 12.1039 1.52316 1  0.0 0.0 0.0
H 7.39076 12.2071 98.4028 1  0.0 0.0 0.0
H 5.09756 13.1201 3.23085 1  0.0 0.0 0.0
H 4.90772 13.1949 0.108386 1  0.0 0.0 0.0
H 5.04338 12.9069 97.2979 1  0.0 0.0 0.0
H 2.75859 14.0332 4.41201 2  0.0 0.0 0.0
H 2.49144 14.099 1.77239 1  0.0 0.0 0.0
H 2.51078 14.2262 98.4585 1  0.0 0.0 0.0
H 2.76624 14.035 95.1368 1  0.0 0.0 0.0
H 12.3009 89.8678 1.42823 1  0.0 0.0 0.0
H 9.9802 88.958 3.0511 1  0.0 0.0 0.0
H 7.05989 88.054 4.74187 1  0.0 0.0 0.0
H 4.97212 87.1769 6.32184 1  0.0 0.0 0.0
H 2.43228 85.9534 7.89154 1  0.0 0.0 0.0
H 7.58793 97.336 13.989 1  0.0 0.0 0.0
H 6.15912 95.1577 13.1735 1  0.0 0.0 0.0
H 4.93091 92.5948 12.2541 1  0.0 0.0 0.0
H 3.09673 90.0314 11.4291 1  0.0 0.0 0.0
H 1.44066 87.7828 10.3815 1  0.0 0.0 0.0
H 11.5473 91.4292 4.24766 1  0.0 0.0 0.0
H 10.3474 92.7375 6.85652 1  0.0 0.0 0.0
H 9.05949 90.2209 5.55725 1  0.0 0.0 0.0
H 9.2169 94.2108 9.00976 1  0.0 0.0 0.0
H 7.87196 91.9771 8.21848 1  0.0 0.0 0.0
H 6.64862 89.4642 7.38529 1  0.0 0.0 0.0
H 8.69289 95.8026 11.5716 1  0.0 0.0 0.0
H 7.15025 93.5857 10.88 1  0.0 0.0 0.0
H 5.66622 90.7798 9.72991 1  0.0 0.0 0.0
H 3.91878 88.5455 8.55202 1  0.0 0.0 0.0
H 12.1139 89.8896 98.4044 1  0.0 0.0 0.0
H 9.68586 88.6596 96.8035 1  0.0 0.0 0.0
H 7.22758 87.9963 95.4556 1  0.0 0.0 0.0
H 4.63782 87.1404 94.0379 1  0.0 0.0 0.0
H 2.23105 86.3057 92.2589 1  0.0 0.0 0.0
H 7.07103 97.326 86.0809 1  0.0 0.0 0.0
H 5.67885 94.9401 86.9049 1  0.0 0.0 0.0
H 4.32486 92.5688 87.9618 1  0.0 0.0 0.0
H 2.79361 90.1308 88.9124 1  0.0 0.0 0.0
H 1.61039 87.6518 89.8516 1  0.0 0.0 0.0
H 11.573 91.4778 95.947 1  0.0 0.0 0.0
H 10.1568 92.9998 93.2539 1  0.0 0.0 0.0
H 8.57462 90.6771 94.7076 1  0.0 0.0 0.0
H 9.29795 94.1929 90.8243 1  0.0 0.0 0.0
H 7.9037 91.9355 91.8593 1  0.0 0.0 0.0
H 6.47489 89.4071 92.7254 1  0.0 0.0 0.0
H 8.3871 95.5792 88.5264 1  0.0 0.0 0.0
H 6.79586 93.3102 89.2457 1  0.0 0.0 0.0
H 5.49807 90.9352 90.0505 1  0.0 0.0 0.0
H 4.00916 89.0681 91.3855 1  0.0 0.0 0.0
H 100.215 85.0398 5.95037 1  0.0 0.0 0.0
H 99.6148 85.0378 3.20775 1  0.0 0.0 0.0
H 100.097 85.073 99.845 1  0.0 0.0 0.0
H 99.8254 85.0594 96.933 1  0.0 0.0 0.0
H 99.9116 85.1561 94.0879 1  0.0 0.0 0.0
H 9.84801 88.8045 -0.0404631 1  0.0 0.0 0.0
H 7.11966 87.9935 1.71501 1  0.0 0.0 0.0
H 7.40346 88.3266 98.6436 1  0.0 0.0 0.0
H 4.95864 86.8751 3.08942 1  0.0 0.0 0.0
H 4.79225 87.2941 99.9869 1  0.0 0.0 0.0
H 4.56345 87.2883 96.8392 1  0.0 0.0 0.0
H 2.62154 86.074 4.73481 1  0.0 0.0 0.0
H 2.24027 86.006 1.53848 1  0.0 0.0 0.0
H 2.45403 85.9674 98.4269 1  0.0 0.0 0.0
H 2.39485 86.3798 95.6498 1  0.0 0.0 0.0
H 85.2531 6.24399 99.9439 1  0.0 0.0 0.0
H 85.1885 3.48432 0.0443804 1  0.0 0.0 0.0
H 85.0375 0.426467 99.6696 1  0.0 0.0 0.0